 &FCI NORB=  15,NELEC=   4,MS2=   0,
  ORBSYM=1,1,1,1,1,1,1,1,1,1,1,1,1,1,1,
  ISYM=1,
 &END
 1.8750000000000000E+00    1    1    1    1
 2.6806510025823516E-01    2    1    1    1
 6.5843621399176946E-02    2    1    2    1
 6.2962962962962954E-01    2    2    1    1
 2.5744972228800442E-02    2    2    2    1
 4.5117187500000000E-01    2    2    2    2
 7.2839506172839497E-01    3    3    1    1
 2.5744972228800751E-02    3    3    2    1
 4.8632812499999994E-01    3    3    2    2
 5.5546874999999984E-01    3    3    3    3
 5.1211705532693157E-02    4    1    4    1
-3.8617458343201537E-02    4    2    4    1
 8.7890624999999944E-02    4    2    4    2
 7.2839506172839497E-01    4    4    1    1
 2.5744972228800751E-02    4    4    2    1
 4.8632812499999994E-01    4    4    2    2
 5.2382812499999987E-01    4    4    3    3
 5.8710937499999993E-01    4    4    4    4
 7.2839506172839497E-01    5    5    1    1
 2.5744972228800751E-02    5    5    2    1
 4.8632812499999994E-01    5    5    2    2
 5.5546874999999984E-01    5    5    3    3
 5.2382812499999987E-01    5    5    4    4
 5.5546874999999984E-01    5    5    5    5
 6.2500000000000000E-01    6    6    6    6
 8.9355033419411728E-02    7    6    6    6
 2.1947873799725650E-02    7    6    7    6
 2.0987654320987653E-01    7    7    6    6
 8.5816574096001467E-03    7    7    7    6
 1.5039062500000000E-01    7    7    7    7
 2.4279835390946500E-01    8    8    6    6
 8.5816574096002490E-03    8    8    7    6
 1.6210937499999997E-01    8    8    7    7
 1.8515624999999997E-01    8    8    8    8
 1.7070568510897718E-02    9    6    9    6
-1.2872486114400512E-02    9    7    9    6
 2.9296874999999983E-02    9    7    9    7
 2.4279835390946500E-01    9    9    6    6
 8.5816574096002490E-03    9    9    7    6
 1.6210937499999997E-01    9    9    7    7
 1.7460937499999998E-01    9    9    8    8
 1.9570312499999998E-01    9    9    9    9
 2.4279835390946500E-01   10   10    6    6
 8.5816574096002490E-03   10   10    7    6
 1.6210937499999997E-01   10   10    7    7
 1.8515624999999997E-01   10   10    8    8
 1.7460937499999998E-01   10   10    9    9
 1.8515624999999997E-01   10   10   10   10
 6.2500000000000000E-01   11   11   11   11
 8.9355033419411728E-02   12   11   11   11
 2.1947873799725650E-02   12   11   12   11
 2.0987654320987653E-01   12   12   11   11
 8.5816574096001467E-03   12   12   12   11
 1.5039062500000000E-01   12   12   12   12
 2.4279835390946500E-01   13   13   11   11
 8.5816574096002490E-03   13   13   12   11
 1.6210937499999997E-01   13   13   12   12
 1.8515624999999997E-01   13   13   13   13
 1.7070568510897718E-02   14   11   14   11
-1.2872486114400512E-02   14   12   14   11
 2.9296874999999983E-02   14   12   14   12
 2.4279835390946500E-01   14   14   11   11
 8.5816574096002490E-03   14   14   12   11
 1.6210937499999997E-01   14   14   12   12
 1.7460937499999998E-01   14   14   13   13
 1.9570312499999998E-01   14   14   14   14
 2.4279835390946500E-01   15   15   11   11
 8.5816574096002490E-03   15   15   12   11
 1.6210937499999997E-01   15   15   12   12
 1.8515624999999997E-01   15   15   13   13
 1.7460937499999998E-01   15   15   14   14
 1.8515624999999997E-01   15   15   15   15
-4.5000000000000000E+00    1    1    0    0
-1.1250000000000000E+00    2    2    0    0
-1.1250000000000000E+00    3    3    0    0
-1.1250000000000000E+00    4    4    0    0
-1.1250000000000000E+00    5    5    0    0
 5.3105790282095695E+00    6    6    0    0
 2.0392940928378676E+00    7    6    0    0
 5.9081083592932870E-01    7    7    0    0
-1.2041970639100485E-01    8    8    0    0
-1.2041970639100485E-01    9    9    0    0
-1.2041970639100485E-01   10   10    0    0
-5.0000000000000000E-01   11   11    0    0
-1.2500000000000000E-01   12   12    0    0
-1.2500000000000000E-01   13   13    0    0
-1.2500000000000000E-01   14   14    0    0
-1.2500000000000000E-01   15   15    0    0
-6.0798999999999994E+00    0    0    0    0
