 &FCI NORB=  15,NELEC=   4,MS2=   0,
  ORBSYM=1,1,1,1,1,1,1,1,1,1,1,1,1,1,1,
  ISYM=1,
 &END
 1.8750000000000000E+00    1    1    1    1
 2.6806510025823516E-01    2    1    1    1
 6.5843621399176946E-02    2    1    2    1
 6.2962962962962954E-01    2    2    1    1
 2.5744972228800442E-02    2    2    2    1
 4.5117187500000000E-01    2    2    2    2
 7.2839506172839497E-01    3    3    1    1
 2.5744972228800751E-02    3    3    2    1
 4.8632812499999994E-01    3    3    2    2
 5.5546874999999984E-01    3    3    3    3
 5.1211705532693157E-02    4    1    4    1
-3.8617458343201537E-02    4    2    4    1
 8.7890624999999944E-02    4    2    4    2
 7.2839506172839497E-01    4    4    1    1
 2.5744972228800751E-02    4    4    2    1
 4.8632812499999994E-01    4    4    2    2
 5.2382812499999987E-01    4    4    3    3
 5.8710937499999993E-01    4    4    4    4
 7.2839506172839497E-01    5    5    1    1
 2.5744972228800751E-02    5    5    2    1
 4.8632812499999994E-01    5    5    2    2
 5.5546874999999984E-01    5    5    3    3
 5.2382812499999987E-01    5    5    4    4
 5.5546874999999984E-01    5    5    5    5
 8.9065747712212096E-01    6    6    1    1
 5.5511437932754565E-02    6    6    2    1
 5.0584401499142362E-01    6    6    2    2
 5.7514920956675453E-01    6    6    3    3
 5.7514920956675453E-01    6    6    4    4
 5.7514920956675453E-01    6    6    5    5
 6.2500000000000000E-01    6    6    6    6
 1.7161863769873445E-01    7    6    1    1
 1.8362775793356590E-02    7    6    2    1
 5.5139852239475082E-02    7    6    2    2
 7.3589707926378811E-02    7    6    3    3
 7.3589707926378811E-02    7    6    4    4
 7.3589707926378811E-02    7    6    5    5
 8.9355033419411728E-02    7    6    6    6
 2.1947873799725650E-02    7    6    7    6
 2.3685988473060982E-01    7    7    1    1
 5.9277253344670912E-03    7    7    2    1
 1.9916153855135599E-01    7    7    2    2
 2.0494725031793684E-01    7    7    3    3
 2.0494725031793684E-01    7    7    4    4
 2.0494725031793684E-01    7    7    5    5
 2.0987654320987653E-01    7    7    6    6
 8.5816574096001467E-03    7    7    7    6
 1.5039062500000000E-01    7    7    7    7
 2.4971746394354929E-01    8    8    1    1
 3.9497170328235562E-04    8    8    2    1
 2.3789824462705955E-01    8    8    2    2
 2.4457693883799220E-01    8    8    3    3
 2.3691248843459012E-01    8    8    4    4
 2.4457693883799220E-01    8    8    5    5
 2.4279835390946500E-01    8    8    6    6
 8.5816574096002490E-03    8    8    7    6
 1.6210937499999997E-01    8    8    7    7
 1.8515624999999997E-01    8    8    8    8
 1.7176747372829430E-02    9    6    4    1
-3.6800936084037061E-02    9    6    4    2
 1.7070568510897718E-02    9    6    9    6
-2.8633404884174157E-03    9    7    4    1
 1.8542230429768058E-02    9    7    4    2
-1.2872486114400512E-02    9    7    9    6
 2.9296874999999983E-02    9    7    9    7
 2.4971746394354929E-01    9    9    1    1
 3.9497170328235562E-04    9    9    2    1
 2.3789824462705955E-01    9    9    2    2
 2.3691248843459012E-01    9    9    3    3
 2.5224138924139428E-01    9    9    4    4
 2.3691248843459012E-01    9    9    5    5
 2.4279835390946500E-01    9    9    6    6
 8.5816574096002490E-03    9    9    7    6
 1.6210937499999997E-01    9    9    7    7
 1.7460937499999998E-01    9    9    8    8
 1.9570312499999998E-01    9    9    9    9
 2.4971746394354929E-01   10   10    1    1
 3.9497170328235562E-04   10   10    2    1
 2.3789824462705955E-01   10   10    2    2
 2.4457693883799220E-01   10   10    3    3
 2.3691248843459012E-01   10   10    4    4
 2.4457693883799220E-01   10   10    5    5
 2.4279835390946500E-01   10   10    6    6
 8.5816574096002490E-03   10   10    7    6
 1.6210937499999997E-01   10   10    7    7
 1.8515624999999997E-01   10   10    8    8
 1.7460937499999998E-01   10   10    9    9
 1.8515624999999997E-01   10   10   10   10
 8.9065747712212096E-01   11   11    1    1
 5.5511437932754565E-02   11   11    2    1
 5.0584401499142362E-01   11   11    2    2
 5.7514920956675453E-01   11   11    3    3
 5.7514920956675453E-01   11   11    4    4
 5.7514920956675453E-01   11   11    5    5
 6.2500000000000000E-01   11   11   11   11
 1.7161863769873445E-01   12   11    1    1
 1.8362775793356590E-02   12   11    2    1
 5.5139852239475082E-02   12   11    2    2
 7.3589707926378811E-02   12   11    3    3
 7.3589707926378811E-02   12   11    4    4
 7.3589707926378811E-02   12   11    5    5
 8.9355033419411728E-02   12   11   11   11
 2.1947873799725650E-02   12   11   12   11
 2.3685988473060982E-01   12   12    1    1
 5.9277253344670912E-03   12   12    2    1
 1.9916153855135599E-01   12   12    2    2
 2.0494725031793684E-01   12   12    3    3
 2.0494725031793684E-01   12   12    4    4
 2.0494725031793684E-01   12   12    5    5
 2.0987654320987653E-01   12   12   11   11
 8.5816574096001467E-03   12   12   12   11
 1.5039062500000000E-01   12   12   12   12
 2.4971746394354929E-01   13   13    1    1
 3.9497170328235562E-04   13   13    2    1
 2.3789824462705955E-01   13   13    2    2
 2.4457693883799220E-01   13   13    3    3
 2.3691248843459012E-01   13   13    4    4
 2.4457693883799220E-01   13   13    5    5
 2.4279835390946500E-01   13   13   11   11
 8.5816574096002490E-03   13   13   12   11
 1.6210937499999997E-01   13   13   12   12
 1.8515624999999997E-01   13   13   13   13
 1.7176747372829430E-02   14   11    4    1
-3.6800936084037061E-02   14   11    4    2
 1.7070568510897718E-02   14   11   14   11
-2.8633404884174157E-03   14   12    4    1
 1.8542230429768058E-02   14   12    4    2
-1.2872486114400512E-02   14   12   14   11
 2.9296874999999983E-02   14   12   14   12
 2.4971746394354929E-01   14   14    1    1
 3.9497170328235562E-04   14   14    2    1
 2.3789824462705955E-01   14   14    2    2
 2.3691248843459012E-01   14   14    3    3
 2.5224138924139428E-01   14   14    4    4
 2.3691248843459012E-01   14   14    5    5
 2.4279835390946500E-01   14   14   11   11
 8.5816574096002490E-03   14   14   12   11
 1.6210937499999997E-01   14   14   12   12
 1.7460937499999998E-01   14   14   13   13
 1.9570312499999998E-01   14   14   14   14
 2.4971746394354929E-01   15   15    1    1
 3.9497170328235562E-04   15   15    2    1
 2.3789824462705955E-01   15   15    2    2
 2.4457693883799220E-01   15   15    3    3
 2.3691248843459012E-01   15   15    4    4
 2.4457693883799220E-01   15   15    5    5
 2.4279835390946500E-01   15   15   11   11
 8.5816574096002490E-03   15   15   12   11
 1.6210937499999997E-01   15   15   12   12
 1.8515624999999997E-01   15   15   13   13
 1.7460937499999998E-01   15   15   14   14
 1.8515624999999997E-01   15   15   15   15
-4.8316749121665357E+00    1    1    0    0
-1.1733487723059928E-05    2    1    0    0
-1.4519504787345210E+00    2    2    0    0
-1.4325458713249897E+00    3    3    0    0
-2.7301698858332710E-02    4    1    0    0
 1.0412676096875839E-01    4    2    0    0
-1.4979987975708984E+00    4    4    0    0
-1.4325458713249897E+00    5    5    0    0
-8.2847162244638239E-01    6    6    0    0
-1.2567536497395206E-02    7    6    0    0
-3.1092529798903601E-01    7    7    0    0
-3.2565891904193817E-01    8    8    0    0
-5.7638775496359963E-02    9    6    0    0
 6.1801604067015591E-02    9    7    0    0
-3.9291747585572351E-01    9    9    0    0
-3.2565891904193817E-01   10   10    0    0
-1.4854148673391470E+00   11   11    0    0
-3.7702609492185617E-02   12   11    0    0
-6.8277589396710803E-01   12   12    0    0
-7.2697675712581455E-01   13   13    0    0
 1.7291632648907990E-01   14   11    0    0
-1.8540481220104676E-01   14   12    0    0
-9.2875242756717058E-01   14   14    0    0
-7.2697675712581455E-01   15   15    0    0
-6.6798999999999999E+00    0    0    0    0
