 &FCI NORB=  10,NELEC=   2,MS2=   0,
  ORBSYM=1,1,1,1,1,1,1,1,1,1,
  ISYM=1,
 &END
 6.2500000000000000E-01    1    1    1    1
 8.9355033419411728E-02    2    1    1    1
 2.1947873799725650E-02    2    1    2    1
 2.0987654320987653E-01    2    2    1    1
 8.5816574096001467E-03    2    2    2    1
 1.5039062500000000E-01    2    2    2    2
 2.4279835390946500E-01    3    3    1    1
 8.5816574096002490E-03    3    3    2    1
 1.6210937499999997E-01    3    3    2    2
 1.8515624999999997E-01    3    3    3    3
 1.7070568510897718E-02    4    1    4    1
-1.2872486114400512E-02    4    2    4    1
 2.9296874999999983E-02    4    2    4    2
 2.4279835390946500E-01    4    4    1    1
 8.5816574096002490E-03    4    4    2    1
 1.6210937499999997E-01    4    4    2    2
 1.7460937499999998E-01    4    4    3    3
 1.9570312499999998E-01    4    4    4    4
 2.4279835390946500E-01    5    5    1    1
 8.5816574096002490E-03    5    5    2    1
 1.6210937499999997E-01    5    5    2    2
 1.8515624999999997E-01    5    5    3    3
 1.7460937499999998E-01    5    5    4    4
 1.8515624999999997E-01    5    5    5    5
 6.2500000000000000E-01    6    6    6    6
 8.9355033419411728E-02    7    6    6    6
 2.1947873799725650E-02    7    6    7    6
 2.0987654320987653E-01    7    7    6    6
 8.5816574096001467E-03    7    7    7    6
 1.5039062500000000E-01    7    7    7    7
 2.4279835390946500E-01    8    8    6    6
 8.5816574096002490E-03    8    8    7    6
 1.6210937499999997E-01    8    8    7    7
 1.8515624999999997E-01    8    8    8    8
 1.7070568510897718E-02    9    6    9    6
-1.2872486114400512E-02    9    7    9    6
 2.9296874999999983E-02    9    7    9    7
 2.4279835390946500E-01    9    9    6    6
 8.5816574096002490E-03    9    9    7    6
 1.6210937499999997E-01    9    9    7    7
 1.7460937499999998E-01    9    9    8    8
 1.9570312499999998E-01    9    9    9    9
 2.4279835390946500E-01   10   10    6    6
 8.5816574096002490E-03   10   10    7    6
 1.6210937499999997E-01   10   10    7    7
 1.8515624999999997E-01   10   10    8    8
 1.7460937499999998E-01   10   10    9    9
 1.8515624999999997E-01   10   10   10   10
-6.9994552008428501E-01    1    1    0    0
-9.8496667376253566E-04    2    1    0    0
-2.8912043222986983E-01    2    2    0    0
-2.8332019428514210E-01    3    3    0    0
-2.8324735441570201E-02    4    1    0    0
 6.7140805792174477E-02    4    2    0    0
-3.4283307686360953E-01    4    4    0    0
-2.8332019428514210E-01    5    5    0    0
-2.6994007209271351E+00    6    6    0    0
-1.0834633411387892E-02    7    6    0    0
-1.9303247545285678E+00    7    7    0    0
-1.8665221371365632E+00    8    8    0    0
 3.1157208985727219E-01    9    6    0    0
-7.3854886371391926E-01    9    7    0    0
-2.5211638454997050E+00    9    9    0    0
-1.8665221371365632E+00   10   10    0    0
-1.6254368872686487E+02    0    0    0    0
