 &FCI NORB=  28,NELEC=   2,MS2=   0,
  ORBSYM=1,1,1,1,1,1,1,1,1,1,1,1,1,1,1,1,1,1,1,1,1,1,1,1,1,1,1,1,
  ISYM=1,
 &END
 6.2500000000000000E-01    1    1    1    1
 8.9355033419411728E-02    2    1    1    1
 2.1947873799725650E-02    2    1    2    1
 2.0987654320987653E-01    2    2    1    1
 8.5816574096001467E-03    2    2    2    1
 1.5039062500000000E-01    2    2    2    2
 2.4279835390946500E-01    3    3    1    1
 8.5816574096002490E-03    3    3    2    1
 1.6210937499999997E-01    3    3    2    2
 1.8515624999999997E-01    3    3    3    3
 1.7070568510897718E-02    4    1    4    1
-1.2872486114400512E-02    4    2    4    1
 2.9296874999999983E-02    4    2    4    2
 2.4279835390946500E-01    4    4    1    1
 8.5816574096002490E-03    4    4    2    1
 1.6210937499999997E-01    4    4    2    2
 1.7460937499999998E-01    4    4    3    3
 1.9570312499999998E-01    4    4    4    4
 2.4279835390946500E-01    5    5    1    1
 8.5816574096002490E-03    5    5    2    1
 1.6210937499999997E-01    5    5    2    2
 1.8515624999999997E-01    5    5    3    3
 1.7460937499999998E-01    5    5    4    4
 1.8515624999999997E-01    5    5    5    5
 4.3959449496098084E-02    6    1    1    1
 1.1222918498291171E-02    6    1    2    1
 3.9359509256830369E-03    6    1    2    2
 3.4816662381379148E-03    6    1    3    3
 3.4816662381379148E-03    6    1    4    4
 3.4816662381379148E-03    6    1    5    5
 5.7678222656250000E-03    6    1    6    1
 5.0526476912786680E-02    6    2    1    1
 4.5428468754505858E-03    6    2    2    1
 2.1467056411127367E-02    6    2    2    2
 2.6522017854667658E-02    6    2    3    3
 2.6522017854667658E-02    6    2    4    4
 2.6522017854667658E-02    6    2    5    5
 2.1090388346293532E-03    6    2    6    1
 7.4760191999999996E-03    6    2    6    2
-4.5566302093772697E-03    6    4    4    1
 7.0073139270719655E-03    6    4    4    2
 3.1408127999993673E-03    6    4    6    4
 9.9487304687500000E-02    6    6    1    1
 2.4288531784278197E-03    6    6    2    1
 8.4113919999999995E-02    6    6    2    2
 8.6755839999999987E-02    6    6    3    3
 8.6755839999999987E-02    6    6    4    4
 8.6755839999999987E-02    6    6    5    5
 1.1311319288539825E-03    6    6    6    1
 4.6472965646196154E-03    6    6    6    2
 6.6406250000000000E-02    6    6    6    6
 5.7391207845330396E-02    7    3    1    1
 4.4510627297799643E-03    7    3    2    1
 2.0914317278228265E-02    7    3    2    2
 2.9370656223196075E-02    7    3    3    3
 2.7218032274762612E-02    7    3    4    4
 2.9370656223196075E-02    7    3    5    5
 1.8785705427479173E-03    7    3    6    1
 8.0184615011623505E-03    7    3    6    2
 4.6103778578420948E-03    7    3    6    6
 1.0362028032000021E-02    7    3    7    3
 1.0882568359374999E-01    7    7    1    1
 2.3649429107110691E-03    7    7    2    1
 9.0012159999999980E-02    7    7    2    2
 9.4979583999999798E-02    7    7    3    3
 9.1873792000000315E-02    7    7    4    4
 9.4979583999999798E-02    7    7    5    5
 1.0138021987943730E-03    7    7    6    1
 5.5191693207938576E-03    7    7    6    2
 6.8793402777777762E-02    7    7    6    6
 5.7118454428463829E-03    7    7    7    3
 7.3307291666666774E-02    7    7    7    7
 8.7511712550671292E-03    8    1    4    1
-5.6855371587420890E-03    8    1    4    2
-2.1162009106063368E-03    8    1    6    4
 4.5318603515624896E-03    8    1    8    1
-1.5287037566948858E-03    8    2    4    1
-3.3060143470344064E-04    8    2    4    2
 1.9504365813632382E-03    8    2    6    4
-7.7609753152336938E-04    8    2    8    1
 2.8311551999992946E-03    8    2    8    2
 5.7391207845330396E-02    8    4    1    1
 4.4510627297799643E-03    8    4    2    1
 2.0914317278228265E-02    8    4    2    2
 2.7218032274762612E-02    8    4    3    3
 3.1523280171629545E-02    8    4    4    4
 2.7218032274762612E-02    8    4    5    5
 1.8785705427479173E-03    8    4    6    1
 8.0184615011623505E-03    8    4    6    2
 4.6103778578420948E-03    8    4    6    6
 9.0030735359999548E-03    8    4    7    3
 6.2135397887023392E-03    8    4    7    7
 1.1720982528000088E-02    8    4    8    4
-3.9929287462119019E-03    8    6    4    1
 1.1738738684134310E-02    8    6    4    2
 6.5837021852604687E-05    8    6    6    4
-1.7086141939888382E-03    8    6    8    1
-3.9285308797557322E-03    8    6    8    2
 1.4105902777777761E-02    8    6    8    6
 1.0882568359374999E-01    8    8    1    1
 2.3649429107110691E-03    8    8    2    1
 9.0012159999999980E-02    8    8    2    2
 9.1873792000000315E-02    8    8    3    3
 9.8085375999999266E-02    8    8    4    4
 9.1873792000000315E-02    8    8    5    5
 1.0138021987943730E-03    8    8    6    1
 5.5191693207938576E-03    8    8    6    2
 6.8793402777777762E-02    8    8    6    6
 6.2135397887023392E-03    8    8    7    3
 6.8988715277777529E-02    8    8    7    7
 5.2101510969904275E-03    8    8    8    4
 7.7625868055556033E-02    8    8    8    8
 5.7391207845330396E-02    9    5    1    1
 4.4510627297799643E-03    9    5    2    1
 2.0914317278228265E-02    9    5    2    2
 2.9370656223196075E-02    9    5    3    3
 2.7218032274762612E-02    9    5    4    4
 2.9370656223196075E-02    9    5    5    5
 1.8785705427479173E-03    9    5    6    1
 8.0184615011623505E-03    9    5    6    2
 4.6103778578420948E-03    9    5    6    6
 1.0362028032000021E-02    9    5    7    3
 5.7118454428463829E-03    9    5    7    7
 9.0030735359999548E-03    9    5    8    4
 6.2135397887023392E-03    9    5    8    8
 1.0362028032000021E-02    9    5    9    5
 1.0882568359374999E-01    9    9    1    1
 2.3649429107110691E-03    9    9    2    1
 9.0012159999999980E-02    9    9    2    2
 9.4979583999999798E-02    9    9    3    3
 9.1873792000000315E-02    9    9    4    4
 9.4979583999999798E-02    9    9    5    5
 1.0138021987943730E-03    9    9    6    1
 5.5191693207938576E-03    9    9    6    2
 6.8793402777777762E-02    9    9    6    6
 5.7118454428463829E-03    9    9    7    3
 7.3307291666666774E-02    9    9    7    7
 6.2135397887023392E-03    9    9    8    4
 6.8988715277777529E-02    9    9    8    8
 5.7118454428463829E-03    9    9    9    5
 7.3307291666666774E-02    9    9    9    9
 1.1102294921875000E-01   10   10    1    1
 3.1981434379720969E-04   10   10    2    1
 1.0357811200000000E-01   10   10    2    2
 1.0845205942857133E-01   10   10    3    3
 1.0208775314285728E-01   10   10    4    4
 1.0845205942857133E-01   10   10    5    5
 7.5164358319286054E-05   10   10    6    1
 6.9003538850329442E-03   10   10    6    2
 7.3133680555555552E-02   10   10    6    6
 5.5034163158942002E-03   10   10    7    3
 7.8996155753968178E-02   10   10    7    7
 6.6303980426069145E-03   10   10    8    4
 7.2801959325396917E-02   10   10    8    8
 5.5034163158942002E-03   10   10    9    5
 7.8996155753968178E-02   10   10    9    9
 8.9821015211640209E-02   10   10   10   10
 6.1774684055696735E-03   11    3    4    1
-1.4326557453525807E-02   11    3    4    2
-2.6439251436266766E-03   11    3    6    4
 2.7499143826168527E-03   11    3    8    1
 1.2740198399999734E-03   11    3    8    2
-7.2003692713386910E-03   11    3    8    6
 8.2750621988571475E-03   11    3   11    3
-7.1958227354378904E-04   11    7    4    1
 6.1931519999998954E-03   11    7    4    2
-1.1250576986465022E-03   11    7    6    4
-1.8411432472583333E-04   11    7    8    1
-3.6744230571655375E-03   11    7    8    2
 9.3025326603099322E-03   11    7    8    6
-4.8094915923473881E-03   11    7   11    3
 7.7194940476192145E-03   11    7   11    7
 1.1102294921875000E-01   11   11    1    1
 3.1981434379720969E-04   11   11    2    1
 1.0357811200000000E-01   11   11    2    2
 1.0526990628571431E-01   11   11    3    3
 1.0845205942857133E-01   11   11    4    4
 1.0526990628571431E-01   11   11    5    5
 7.5164358319286054E-05   11   11    6    1
 6.9003538850329442E-03   11   11    6    2
 7.3133680555555552E-02   11   11    6    6
 6.0669071792505578E-03   11   11    7    3
 7.5899057539682555E-02   11   11    7    7
 5.5034163158942002E-03   11   11    8    4
 7.8996155753968178E-02   11   11    8    8
 6.0669071792505578E-03   11   11    9    5
 7.5899057539682555E-02   11   11    9    9
 8.3923404431216944E-02   11   11   10   10
 8.8047701719576696E-02   11   11   11   11
-8.7534570908996343E-04   12    1    3    3
 1.7506914181799269E-03   12    1    4    4
-8.7534570908996343E-04   12    1    5    5
-2.5530886417910777E-04   12    1    7    3
-2.1570808417535858E-04   12    1    7    7
 5.1061772835821553E-04   12    1    8    4
 4.3141616835071716E-04   12    1    8    8
-2.5530886417910777E-04   12    1    9    5
-2.1570808417535858E-04   12    1    9    9
-3.6385924088924119E-04   12    1   10   10
 1.8192962044462059E-04   12    1   11   11
 2.4719238281250010E-04   12    1   12    1
 4.0848214805580775E-03   12    2    3    3
-8.1696429611161549E-03   12    2    4    4
 4.0848214805580775E-03   12    2    5    5
-4.9037046505168746E-05   12    2    7    3
 2.2100303729804373E-03   12    2    7    7
 9.8074093010337493E-05   12    2    8    4
-4.4200607459608746E-03   12    2    8    8
-4.9037046505168746E-05   12    2    9    5
 2.2100303729804373E-03   12    2    9    9
 4.7353552277135877E-03   12    2   10   10
-2.3676776138567938E-03   12    2   11   11
-7.8410229255476585E-04   12    2   12    1
 7.3043804160000444E-03   12    2   12    2
 7.1331260937321185E-03   12    4    4    1
-1.6542883604707528E-02   12    4    4    2
-3.0529417867801636E-03   12    4    6    4
 3.1753276181045271E-03   12    4    8    1
 1.4711113951538172E-03   12    4    8    2
-8.3142702741442059E-03   12    4    8    6
 7.2434722980432463E-03   12    4   11    3
-4.3982910505060971E-03   12    4   11    7
 1.2368103716571426E-02   12    4   12    4
-1.3902285003528788E-04   12    6    3    3
 2.7804570007057577E-04   12    6    4    4
-1.3902285003528788E-04   12    6    5    5
 8.1146200009139325E-04   12    6    7    3
-2.3017798866749851E-03   12    6    7    7
-1.6229240001827865E-03   12    6    8    4
 4.6035597733499701E-03   12    6    8    8
 8.1146200009139325E-04   12    6    9    5
-2.3017798866749851E-03   12    6    9    9
-3.1128832753127573E-03   12    6   10   10
 1.5564416376563786E-03   12    6   11   11
-7.3331081287171743E-05   12    6   12    1
-2.4220452518496720E-03   12    6   12    2
 4.5572916666666435E-03   12    6   12    6
-8.3090203866917909E-04   12    8    4    1
 7.1512359486644176E-03   12    8    4    2
-1.2991047303348379E-03   12    8    6    4
-2.1259690988425207E-04   12    8    8    1
-4.2428582823421813E-03   12    8    8    2
 1.0741639471150451E-02   12    8    8    6
-4.3982910505060971E-03   12    8   11    3
 6.3630958797405547E-03   12    8   11    7
-7.0796286627107588E-03   12    8   12    4
 1.1765252976190821E-02   12    8   12    8
 1.1102294921875000E-01   12   12    1    1
 3.1981434379720969E-04   12   12    2    1
 1.0357811200000000E-01   12   12    2    2
 1.0420918857142863E-01   12   12    3    3
 1.1057349485714268E-01   12   12    4    4
 1.0420918857142863E-01   12   12    5    5
 7.5164358319286054E-05   12   12    6    1
 6.9003538850329442E-03   12   12    6    2
 7.3133680555555552E-02   12   12    6    6
 6.2547374670360104E-03   12   12    7    3
 7.4866691468254004E-02   12   12    7    7
 5.1277557403232961E-03   12   12    8    4
 8.1060887896825265E-02   12   12    8    8
 6.2547374670360104E-03   12   12    9    5
 7.4866691468254004E-02   12   12    9    9
 8.2741195436507931E-02   12   12   10   10
 8.6287822420634971E-02   12   12   11   11
 3.6385924088924119E-04   12   12   12    1
-4.7353552277135877E-03   12   12   12    2
 3.1128832753127573E-03   12   12   12    6
 9.2171999007936448E-02   12   12   12   12
 6.1774684055696735E-03   13    5    4    1
-1.4326557453525807E-02   13    5    4    2
-2.6439251436266766E-03   13    5    6    4
 2.7499143826168527E-03   13    5    8    1
 1.2740198399999734E-03   13    5    8    2
-7.2003692713386910E-03   13    5    8    6
 8.2750621988571475E-03   13    5   11    3
-4.8094915923473881E-03   13    5   11    7
 7.2434722980432463E-03   13    5   12    4
-4.3982910505060971E-03   13    5   12    8
 8.2750621988571475E-03   13    5   13    5
-7.1958227354378904E-04   13    9    4    1
 6.1931519999998954E-03   13    9    4    2
-1.1250576986465022E-03   13    9    6    4
-1.8411432472583333E-04   13    9    8    1
-3.6744230571655375E-03   13    9    8    2
 9.3025326603099322E-03   13    9    8    6
-4.8094915923473881E-03   13    9   11    3
 7.7194940476192145E-03   13    9   11    7
-4.3982910505060971E-03   13    9   12    4
 6.3630958797405547E-03   13    9   12    8
-4.8094915923473881E-03   13    9   13    5
 7.7194940476192145E-03   13    9   13    9
 1.1102294921875000E-01   13   13    1    1
 3.1981434379720969E-04   13   13    2    1
 1.0357811200000000E-01   13   13    2    2
 1.0526990628571431E-01   13   13    3    3
 1.0845205942857133E-01   13   13    4    4
 1.0526990628571431E-01   13   13    5    5
 7.5164358319286054E-05   13   13    6    1
 6.9003538850329442E-03   13   13    6    2
 7.3133680555555552E-02   13   13    6    6
 6.0669071792505578E-03   13   13    7    3
 7.5899057539682555E-02   13   13    7    7
 5.5034163158942002E-03   13   13    8    4
 7.8996155753968178E-02   13   13    8    8
 6.0669071792505578E-03   13   13    9    5
 7.5899057539682555E-02   13   13    9    9
 8.3923404431216944E-02   13   13   10   10
 8.8047701719576696E-02   13   13   11   11
 1.8192962044462059E-04   13   13   12    1
-2.3676776138567938E-03   13   13   12    2
 1.5564416376563786E-03   13   13   12    6
 8.6287822420634971E-02   13   13   12   12
 8.8047701719576696E-02   13   13   13   13
 1.1102294921875000E-01   14   14    1    1
 3.1981434379720969E-04   14   14    2    1
 1.0357811200000000E-01   14   14    2    2
 1.0845205942857133E-01   14   14    3    3
 1.0208775314285728E-01   14   14    4    4
 1.0845205942857133E-01   14   14    5    5
 7.5164358319286054E-05   14   14    6    1
 6.9003538850329442E-03   14   14    6    2
 7.3133680555555552E-02   14   14    6    6
 5.5034163158942002E-03   14   14    7    3
 7.8996155753968178E-02   14   14    7    7
 6.6303980426069145E-03   14   14    8    4
 7.2801959325396917E-02   14   14    8    8
 5.5034163158942002E-03   14   14    9    5
 7.8996155753968178E-02   14   14    9    9
 8.9821015211640209E-02   14   14   10   10
 8.3923404431216944E-02   14   14   11   11
-3.6385924088924119E-04   14   14   12    1
 4.7353552277135877E-03   14   14   12    2
-3.1128832753127573E-03   14   14   12    6
 8.2741195436507931E-02   14   14   12   12
 8.3923404431216944E-02   14   14   13   13
 8.9821015211640209E-02   14   14   14   14
 6.2500000000000000E-01   15   15   15   15
 8.9355033419411728E-02   16   15   15   15
 2.1947873799725650E-02   16   15   16   15
 2.0987654320987653E-01   16   16   15   15
 8.5816574096001467E-03   16   16   16   15
 1.5039062500000000E-01   16   16   16   16
 2.4279835390946500E-01   17   17   15   15
 8.5816574096002490E-03   17   17   16   15
 1.6210937499999997E-01   17   17   16   16
 1.8515624999999997E-01   17   17   17   17
 1.7070568510897718E-02   18   15   18   15
-1.2872486114400512E-02   18   16   18   15
 2.9296874999999983E-02   18   16   18   16
 2.4279835390946500E-01   18   18   15   15
 8.5816574096002490E-03   18   18   16   15
 1.6210937499999997E-01   18   18   16   16
 1.7460937499999998E-01   18   18   17   17
 1.9570312499999998E-01   18   18   18   18
 2.4279835390946500E-01   19   19   15   15
 8.5816574096002490E-03   19   19   16   15
 1.6210937499999997E-01   19   19   16   16
 1.8515624999999997E-01   19   19   17   17
 1.7460937499999998E-01   19   19   18   18
 1.8515624999999997E-01   19   19   19   19
 4.3959449496098084E-02   20   15   15   15
 1.1222918498291171E-02   20   15   16   15
 3.9359509256830369E-03   20   15   16   16
 3.4816662381379148E-03   20   15   17   17
 3.4816662381379148E-03   20   15   18   18
 3.4816662381379148E-03   20   15   19   19
 5.7678222656250000E-03   20   15   20   15
 5.0526476912786680E-02   20   16   15   15
 4.5428468754505858E-03   20   16   16   15
 2.1467056411127367E-02   20   16   16   16
 2.6522017854667658E-02   20   16   17   17
 2.6522017854667658E-02   20   16   18   18
 2.6522017854667658E-02   20   16   19   19
 2.1090388346293532E-03   20   16   20   15
 7.4760191999999996E-03   20   16   20   16
-4.5566302093772697E-03   20   18   18   15
 7.0073139270719655E-03   20   18   18   16
 3.1408127999993673E-03   20   18   20   18
 9.9487304687500000E-02   20   20   15   15
 2.4288531784278197E-03   20   20   16   15
 8.4113919999999995E-02   20   20   16   16
 8.6755839999999987E-02   20   20   17   17
 8.6755839999999987E-02   20   20   18   18
 8.6755839999999987E-02   20   20   19   19
 1.1311319288539825E-03   20   20   20   15
 4.6472965646196154E-03   20   20   20   16
 6.6406250000000000E-02   20   20   20   20
 5.7391207845330396E-02   21   17   15   15
 4.4510627297799643E-03   21   17   16   15
 2.0914317278228265E-02   21   17   16   16
 2.9370656223196075E-02   21   17   17   17
 2.7218032274762612E-02   21   17   18   18
 2.9370656223196075E-02   21   17   19   19
 1.8785705427479173E-03   21   17   20   15
 8.0184615011623505E-03   21   17   20   16
 4.6103778578420948E-03   21   17   20   20
 1.0362028032000021E-02   21   17   21   17
 1.0882568359374999E-01   21   21   15   15
 2.3649429107110691E-03   21   21   16   15
 9.0012159999999980E-02   21   21   16   16
 9.4979583999999798E-02   21   21   17   17
 9.1873792000000315E-02   21   21   18   18
 9.4979583999999798E-02   21   21   19   19
 1.0138021987943730E-03   21   21   20   15
 5.5191693207938576E-03   21   21   20   16
 6.8793402777777762E-02   21   21   20   20
 5.7118454428463829E-03   21   21   21   17
 7.3307291666666774E-02   21   21   21   21
 8.7511712550671292E-03   22   15   18   15
-5.6855371587420890E-03   22   15   18   16
-2.1162009106063368E-03   22   15   20   18
 4.5318603515624896E-03   22   15   22   15
-1.5287037566948858E-03   22   16   18   15
-3.3060143470344064E-04   22   16   18   16
 1.9504365813632382E-03   22   16   20   18
-7.7609753152336938E-04   22   16   22   15
 2.8311551999992946E-03   22   16   22   16
 5.7391207845330396E-02   22   18   15   15
 4.4510627297799643E-03   22   18   16   15
 2.0914317278228265E-02   22   18   16   16
 2.7218032274762612E-02   22   18   17   17
 3.1523280171629545E-02   22   18   18   18
 2.7218032274762612E-02   22   18   19   19
 1.8785705427479173E-03   22   18   20   15
 8.0184615011623505E-03   22   18   20   16
 4.6103778578420948E-03   22   18   20   20
 9.0030735359999548E-03   22   18   21   17
 6.2135397887023392E-03   22   18   21   21
 1.1720982528000088E-02   22   18   22   18
-3.9929287462119019E-03   22   20   18   15
 1.1738738684134310E-02   22   20   18   16
 6.5837021852604687E-05   22   20   20   18
-1.7086141939888382E-03   22   20   22   15
-3.9285308797557322E-03   22   20   22   16
 1.4105902777777761E-02   22   20   22   20
 1.0882568359374999E-01   22   22   15   15
 2.3649429107110691E-03   22   22   16   15
 9.0012159999999980E-02   22   22   16   16
 9.1873792000000315E-02   22   22   17   17
 9.8085375999999266E-02   22   22   18   18
 9.1873792000000315E-02   22   22   19   19
 1.0138021987943730E-03   22   22   20   15
 5.5191693207938576E-03   22   22   20   16
 6.8793402777777762E-02   22   22   20   20
 6.2135397887023392E-03   22   22   21   17
 6.8988715277777529E-02   22   22   21   21
 5.2101510969904275E-03   22   22   22   18
 7.7625868055556033E-02   22   22   22   22
 5.7391207845330396E-02   23   19   15   15
 4.4510627297799643E-03   23   19   16   15
 2.0914317278228265E-02   23   19   16   16
 2.9370656223196075E-02   23   19   17   17
 2.7218032274762612E-02   23   19   18   18
 2.9370656223196075E-02   23   19   19   19
 1.8785705427479173E-03   23   19   20   15
 8.0184615011623505E-03   23   19   20   16
 4.6103778578420948E-03   23   19   20   20
 1.0362028032000021E-02   23   19   21   17
 5.7118454428463829E-03   23   19   21   21
 9.0030735359999548E-03   23   19   22   18
 6.2135397887023392E-03   23   19   22   22
 1.0362028032000021E-02   23   19   23   19
 1.0882568359374999E-01   23   23   15   15
 2.3649429107110691E-03   23   23   16   15
 9.0012159999999980E-02   23   23   16   16
 9.4979583999999798E-02   23   23   17   17
 9.1873792000000315E-02   23   23   18   18
 9.4979583999999798E-02   23   23   19   19
 1.0138021987943730E-03   23   23   20   15
 5.5191693207938576E-03   23   23   20   16
 6.8793402777777762E-02   23   23   20   20
 5.7118454428463829E-03   23   23   21   17
 7.3307291666666774E-02   23   23   21   21
 6.2135397887023392E-03   23   23   22   18
 6.8988715277777529E-02   23   23   22   22
 5.7118454428463829E-03   23   23   23   19
 7.3307291666666774E-02   23   23   23   23
 1.1102294921875000E-01   24   24   15   15
 3.1981434379720969E-04   24   24   16   15
 1.0357811200000000E-01   24   24   16   16
 1.0845205942857133E-01   24   24   17   17
 1.0208775314285728E-01   24   24   18   18
 1.0845205942857133E-01   24   24   19   19
 7.5164358319286054E-05   24   24   20   15
 6.9003538850329442E-03   24   24   20   16
 7.3133680555555552E-02   24   24   20   20
 5.5034163158942002E-03   24   24   21   17
 7.8996155753968178E-02   24   24   21   21
 6.6303980426069145E-03   24   24   22   18
 7.2801959325396917E-02   24   24   22   22
 5.5034163158942002E-03   24   24   23   19
 7.8996155753968178E-02   24   24   23   23
 8.9821015211640209E-02   24   24   24   24
 6.1774684055696735E-03   25   17   18   15
-1.4326557453525807E-02   25   17   18   16
-2.6439251436266766E-03   25   17   20   18
 2.7499143826168527E-03   25   17   22   15
 1.2740198399999734E-03   25   17   22   16
-7.2003692713386910E-03   25   17   22   20
 8.2750621988571475E-03   25   17   25   17
-7.1958227354378904E-04   25   21   18   15
 6.1931519999998954E-03   25   21   18   16
-1.1250576986465022E-03   25   21   20   18
-1.8411432472583333E-04   25   21   22   15
-3.6744230571655375E-03   25   21   22   16
 9.3025326603099322E-03   25   21   22   20
-4.8094915923473881E-03   25   21   25   17
 7.7194940476192145E-03   25   21   25   21
 1.1102294921875000E-01   25   25   15   15
 3.1981434379720969E-04   25   25   16   15
 1.0357811200000000E-01   25   25   16   16
 1.0526990628571431E-01   25   25   17   17
 1.0845205942857133E-01   25   25   18   18
 1.0526990628571431E-01   25   25   19   19
 7.5164358319286054E-05   25   25   20   15
 6.9003538850329442E-03   25   25   20   16
 7.3133680555555552E-02   25   25   20   20
 6.0669071792505578E-03   25   25   21   17
 7.5899057539682555E-02   25   25   21   21
 5.5034163158942002E-03   25   25   22   18
 7.8996155753968178E-02   25   25   22   22
 6.0669071792505578E-03   25   25   23   19
 7.5899057539682555E-02   25   25   23   23
 8.3923404431216944E-02   25   25   24   24
 8.8047701719576696E-02   25   25   25   25
-8.7534570908996343E-04   26   15   17   17
 1.7506914181799269E-03   26   15   18   18
-8.7534570908996343E-04   26   15   19   19
-2.5530886417910777E-04   26   15   21   17
-2.1570808417535858E-04   26   15   21   21
 5.1061772835821553E-04   26   15   22   18
 4.3141616835071716E-04   26   15   22   22
-2.5530886417910777E-04   26   15   23   19
-2.1570808417535858E-04   26   15   23   23
-3.6385924088924119E-04   26   15   24   24
 1.8192962044462059E-04   26   15   25   25
 2.4719238281250010E-04   26   15   26   15
 4.0848214805580775E-03   26   16   17   17
-8.1696429611161549E-03   26   16   18   18
 4.0848214805580775E-03   26   16   19   19
-4.9037046505168746E-05   26   16   21   17
 2.2100303729804373E-03   26   16   21   21
 9.8074093010337493E-05   26   16   22   18
-4.4200607459608746E-03   26   16   22   22
-4.9037046505168746E-05   26   16   23   19
 2.2100303729804373E-03   26   16   23   23
 4.7353552277135877E-03   26   16   24   24
-2.3676776138567938E-03   26   16   25   25
-7.8410229255476585E-04   26   16   26   15
 7.3043804160000444E-03   26   16   26   16
 7.1331260937321185E-03   26   18   18   15
-1.6542883604707528E-02   26   18   18   16
-3.0529417867801636E-03   26   18   20   18
 3.1753276181045271E-03   26   18   22   15
 1.4711113951538172E-03   26   18   22   16
-8.3142702741442059E-03   26   18   22   20
 7.2434722980432463E-03   26   18   25   17
-4.3982910505060971E-03   26   18   25   21
 1.2368103716571426E-02   26   18   26   18
-1.3902285003528788E-04   26   20   17   17
 2.7804570007057577E-04   26   20   18   18
-1.3902285003528788E-04   26   20   19   19
 8.1146200009139325E-04   26   20   21   17
-2.3017798866749851E-03   26   20   21   21
-1.6229240001827865E-03   26   20   22   18
 4.6035597733499701E-03   26   20   22   22
 8.1146200009139325E-04   26   20   23   19
-2.3017798866749851E-03   26   20   23   23
-3.1128832753127573E-03   26   20   24   24
 1.5564416376563786E-03   26   20   25   25
-7.3331081287171743E-05   26   20   26   15
-2.4220452518496720E-03   26   20   26   16
 4.5572916666666435E-03   26   20   26   20
-8.3090203866917909E-04   26   22   18   15
 7.1512359486644176E-03   26   22   18   16
-1.2991047303348379E-03   26   22   20   18
-2.1259690988425207E-04   26   22   22   15
-4.2428582823421813E-03   26   22   22   16
 1.0741639471150451E-02   26   22   22   20
-4.3982910505060971E-03   26   22   25   17
 6.3630958797405547E-03   26   22   25   21
-7.0796286627107588E-03   26   22   26   18
 1.1765252976190821E-02   26   22   26   22
 1.1102294921875000E-01   26   26   15   15
 3.1981434379720969E-04   26   26   16   15
 1.0357811200000000E-01   26   26   16   16
 1.0420918857142863E-01   26   26   17   17
 1.1057349485714268E-01   26   26   18   18
 1.0420918857142863E-01   26   26   19   19
 7.5164358319286054E-05   26   26   20   15
 6.9003538850329442E-03   26   26   20   16
 7.3133680555555552E-02   26   26   20   20
 6.2547374670360104E-03   26   26   21   17
 7.4866691468254004E-02   26   26   21   21
 5.1277557403232961E-03   26   26   22   18
 8.1060887896825265E-02   26   26   22   22
 6.2547374670360104E-03   26   26   23   19
 7.4866691468254004E-02   26   26   23   23
 8.2741195436507931E-02   26   26   24   24
 8.6287822420634971E-02   26   26   25   25
 3.6385924088924119E-04   26   26   26   15
-4.7353552277135877E-03   26   26   26   16
 3.1128832753127573E-03   26   26   26   20
 9.2171999007936448E-02   26   26   26   26
 6.1774684055696735E-03   27   19   18   15
-1.4326557453525807E-02   27   19   18   16
-2.6439251436266766E-03   27   19   20   18
 2.7499143826168527E-03   27   19   22   15
 1.2740198399999734E-03   27   19   22   16
-7.2003692713386910E-03   27   19   22   20
 8.2750621988571475E-03   27   19   25   17
-4.8094915923473881E-03   27   19   25   21
 7.2434722980432463E-03   27   19   26   18
-4.3982910505060971E-03   27   19   26   22
 8.2750621988571475E-03   27   19   27   19
-7.1958227354378904E-04   27   23   18   15
 6.1931519999998954E-03   27   23   18   16
-1.1250576986465022E-03   27   23   20   18
-1.8411432472583333E-04   27   23   22   15
-3.6744230571655375E-03   27   23   22   16
 9.3025326603099322E-03   27   23   22   20
-4.8094915923473881E-03   27   23   25   17
 7.7194940476192145E-03   27   23   25   21
-4.3982910505060971E-03   27   23   26   18
 6.3630958797405547E-03   27   23   26   22
-4.8094915923473881E-03   27   23   27   19
 7.7194940476192145E-03   27   23   27   23
 1.1102294921875000E-01   27   27   15   15
 3.1981434379720969E-04   27   27   16   15
 1.0357811200000000E-01   27   27   16   16
 1.0526990628571431E-01   27   27   17   17
 1.0845205942857133E-01   27   27   18   18
 1.0526990628571431E-01   27   27   19   19
 7.5164358319286054E-05   27   27   20   15
 6.9003538850329442E-03   27   27   20   16
 7.3133680555555552E-02   27   27   20   20
 6.0669071792505578E-03   27   27   21   17
 7.5899057539682555E-02   27   27   21   21
 5.5034163158942002E-03   27   27   22   18
 7.8996155753968178E-02   27   27   22   22
 6.0669071792505578E-03   27   27   23   19
 7.5899057539682555E-02   27   27   23   23
 8.3923404431216944E-02   27   27   24   24
 8.8047701719576696E-02   27   27   25   25
 1.8192962044462059E-04   27   27   26   15
-2.3676776138567938E-03   27   27   26   16
 1.5564416376563786E-03   27   27   26   20
 8.6287822420634971E-02   27   27   26   26
 8.8047701719576696E-02   27   27   27   27
 1.1102294921875000E-01   28   28   15   15
 3.1981434379720969E-04   28   28   16   15
 1.0357811200000000E-01   28   28   16   16
 1.0845205942857133E-01   28   28   17   17
 1.0208775314285728E-01   28   28   18   18
 1.0845205942857133E-01   28   28   19   19
 7.5164358319286054E-05   28   28   20   15
 6.9003538850329442E-03   28   28   20   16
 7.3133680555555552E-02   28   28   20   20
 5.5034163158942002E-03   28   28   21   17
 7.8996155753968178E-02   28   28   21   21
 6.6303980426069145E-03   28   28   22   18
 7.2801959325396917E-02   28   28   22   22
 5.5034163158942002E-03   28   28   23   19
 7.8996155753968178E-02   28   28   23   23
 8.9821015211640209E-02   28   28   24   24
 8.3923404431216944E-02   28   28   25   25
-3.6385924088924119E-04   28   28   26   15
 4.7353552277135877E-03   28   28   26   16
-3.1128832753127573E-03   28   28   26   20
 8.2741195436507931E-02   28   28   26   26
 8.3923404431216944E-02   28   28   27   27
 8.9821015211640209E-02   28   28   28   28
-8.3002833043111157E-01    1    1    0    0
-1.2801142907860594E-02    2    1    0    0
-3.1104658941173569E-01    2    2    0    0
-3.2600442899753201E-01    3    3    0    0
-5.7929789310955701E-02    4    1    0    0
 6.1578918492076008E-02    4    2    0    0
-3.9315181406783717E-01    4    4    0    0