 &FCI NORB=  10,NELEC=   2,MS2=   0,
  ORBSYM=1,1,1,1,1,1,1,1,1,1,
  ISYM=1,
 &END
 6.2500000000000000E-01    1    1    1    1
 8.9355033419411728E-02    2    1    1    1
 2.1947873799725650E-02    2    1    2    1
 2.0987654320987653E-01    2    2    1    1
 8.5816574096001467E-03    2    2    2    1
 1.5039062500000000E-01    2    2    2    2
 2.4279835390946500E-01    3    3    1    1
 8.5816574096002490E-03    3    3    2    1
 1.6210937499999997E-01    3    3    2    2
 1.8515624999999997E-01    3    3    3    3
 1.7070568510897718E-02    4    1    4    1
-1.2872486114400512E-02    4    2    4    1
 2.9296874999999983E-02    4    2    4    2
 2.4279835390946500E-01    4    4    1    1
 8.5816574096002490E-03    4    4    2    1
 1.6210937499999997E-01    4    4    2    2
 1.7460937499999998E-01    4    4    3    3
 1.9570312499999998E-01    4    4    4    4
 2.4279835390946500E-01    5    5    1    1
 8.5816574096002490E-03    5    5    2    1
 1.6210937499999997E-01    5    5    2    2
 1.8515624999999997E-01    5    5    3    3
 1.7460937499999998E-01    5    5    4    4
 1.8515624999999997E-01    5    5    5    5
 6.2500000000000000E-01    6    6    6    6
 8.9355033419411728E-02    7    6    6    6
 2.1947873799725650E-02    7    6    7    6
 2.0987654320987653E-01    7    7    6    6
 8.5816574096001467E-03    7    7    7    6
 1.5039062500000000E-01    7    7    7    7
 2.4279835390946500E-01    8    8    6    6
 8.5816574096002490E-03    8    8    7    6
 1.6210937499999997E-01    8    8    7    7
 1.8515624999999997E-01    8    8    8    8
 1.7070568510897718E-02    9    6    9    6
-1.2872486114400512E-02    9    7    9    6
 2.9296874999999983E-02    9    7    9    7
 2.4279835390946500E-01    9    9    6    6
 8.5816574096002490E-03    9    9    7    6
 1.6210937499999997E-01    9    9    7    7
 1.7460937499999998E-01    9    9    8    8
 1.9570312499999998E-01    9    9    9    9
 2.4279835390946500E-01   10   10    6    6
 8.5816574096002490E-03   10   10    7    6
 1.6210937499999997E-01   10   10    7    7
 1.8515624999999997E-01   10   10    8    8
 1.7460937499999998E-01   10   10    9    9
 1.8515624999999997E-01   10   10   10   10
-7.7940303425094215E-01    1    1    0    0
-6.3223039107287125E-03    2    1    0    0
-3.0616152548674047E-01    2    2    0    0
-3.1311203104292318E-01    3    3    0    0
-4.7503460035958803E-02    4    1    0    0
 6.7725213913080687E-02    4    2    0    0
-3.8212923598935461E-01    4    4    0    0
-3.1311203104292318E-01    5    5    0    0
-3.5734333767603639E+00    6    6    0    0
-6.9545343018015834E-02    7    6    0    0
-2.1177767803541450E+00    7    7    0    0
-2.1942323414721550E+00    8    8    0    0
 5.2253806039554684E-01    9    6    0    0
-7.4497735304388757E-01    9    7    0    0
-2.9534215958829009E+00    9    9    0    0
-2.1942323414721550E+00   10   10    0    0
-1.6157857375210321E+02    0    0    0    0
